# vtk DataFile Version 2.0
VTK from Matlab
ASCII
DATASET UNSTRUCTURED_GRID
POINTS 12980 float
1.00 31.00 1.00 1.00 32.00 1.00 1.00 33.00 1.00 1.00 59.00 1.00 1.00 60.00 1.00 1.00 61.00 1.00 1.00 62.00 1.00 1.00 63.00 1.00 1.00 64.00 1.00 1.00 65.00 1.00 1.00 66.00 1.00 2.00 31.00 1.00 2.00 32.00 1.00 2.00 33.00 1.00 2.00 60.00 1.00 2.00 61.00 1.00 2.00 62.00 1.00 2.00 63.00 1.00 2.00 64.00 1.00 2.00 65.00 1.00 2.00 66.00 1.00 3.00 31.00 1.00 3.00 32.00 1.00 3.00 33.00 1.00 3.00 61.00 1.00 3.00 62.00 1.00 3.00 63.00 1.00 3.00 64.00 1.00 3.00 65.00 1.00 3.00 66.00 1.00 4.00 31.00 1.00 4.00 32.00 1.00 4.00 33.00 1.00 4.00 61.00 1.00 4.00 62.00 1.00 4.00 63.00 1.00 4.00 64.00 1.00 4.00 65.00 1.00 4.00 66.00 1.00 5.00 32.00 1.00 5.00 33.00 1.00 5.00 62.00 1.00 5.00 63.00 1.00 5.00 64.00 1.00 5.00 65.00 1.00 5.00 66.00 1.00 6.00 32.00 1.00 6.00 33.00 1.00 6.00 34.00 1.00 6.00 63.00 1.00 6.00 64.00 1.00 6.00 65.00 1.00 6.00 66.00 1.00 7.00 32.00 1.00 7.00 33.00 1.00 7.00 34.00 1.00 7.00 63.00 1.00 7.00 64.00 1.00 7.00 65.00 1.00 7.00 66.00 1.00 8.00 32.00 1.00 8.00 33.00 1.00 8.00 34.00 1.00 8.00 35.00 1.00 8.00 64.00 1.00 8.00 65.00 1.00 8.00 66.00 1.00 9.00 32.00 1.00 9.00 33.00 1.00 9.00 34.00 1.00 9.00 35.00 1.00 9.00 64.00 1.00 9.00 65.00 1.00 9.00 66.00 1.00 10.00 32.00 1.00 10.00 33.00 1.00 10.00 34.00 1.00 10.00 35.00 1.00 10.00 36.00 1.00 10.00 64.00 1.00 10.00 65.00 1.00 10.00 66.00 1.00 11.00 32.00 1.00 11.00 33.00 1.00 11.00 34.00 1.00 11.00 35.00 1.00 11.00 36.00 1.00 11.00 64.00 1.00 11.00 65.00 1.00 11.00 66.00 1.00 12.00 31.00 1.00 12.00 32.00 1.00 12.00 33.00 1.00 12.00 34.00 1.00 12.00 35.00 1.00 12.00 36.00 1.00 12.00 64.00 1.00 12.00 65.00 1.00 12.00 66.00 1.00 13.00 31.00 1.00 13.00 32.00 1.00 13.00 33.00 1.00 13.00 34.00 1.00 13.00 35.00 1.00 13.00 36.00 1.00 13.00 64.00 1.00 13.00 65.00 1.00 13.00 66.00 1.00 14.00 31.00 1.00 14.00 32.00 1.00 14.00 33.00 1.00 14.00 34.00 1.00 14.00 35.00 1.00 14.00 36.00 1.00 14.00 64.00 1.00 14.00 65.00 1.00 14.00 66.00 1.00 15.00 31.00 1.00 15.00 32.00 1.00 15.00 33.00 1.00 15.00 34.00 1.00 15.00 35.00 1.00 15.00 36.00 1.00 15.00 64.00 1.00 15.00 65.00 1.00 15.00 66.00 1.00 16.00 31.00 1.00 16.00 32.00 1.00 16.00 33.00 1.00 16.00 34.00 1.00 16.00 35.00 1.00 16.00 36.00 1.00 16.00 64.00 1.00 16.00 65.00 1.00 16.00 66.00 1.00 17.00 31.00 1.00 17.00 32.00 1.00 17.00 33.00 1.00 17.00 34.00 1.00 17.00 35.00 1.00 17.00 36.00 1.00 17.00 37.00 1.00 17.00 65.00 1.00 17.00 66.00 1.00 18.00 31.00 1.00 18.00 32.00 1.00 18.00 33.00 1.00 18.00 34.00 1.00 18.00 35.00 1.00 18.00 36.00 1.00 18.00 37.00 1.00 19.00 31.00 1.00 19.00 32.00 1.00 19.00 33.00 1.00 19.00 34.00 1.00 19.00 35.00 1.00 19.00 36.00 1.00 19.00 37.00 1.00 19.00 38.00 1.00 20.00 11.00 1.00 20.00 31.00 1.00 20.00 32.00 1.00 20.00 33.00 1.00 20.00 34.00 1.00 20.00 35.00 1.00 20.00 36.00 1.00 20.00 37.00 1.00 20.00 38.00 1.00 21.00 4.00 1.00 21.00 5.00 1.00 21.00 6.00 1.00 21.00 7.00 1.00 21.00 8.00 1.00 21.00 9.00 1.00 21.00 10.00 1.00 21.00 11.00 1.00 21.00 31.00 1.00 21.00 32.00 1.00 21.00 33.00 1.00 21.00 34.00 1.00 21.00 35.00 1.00 21.00 36.00 1.00 21.00 37.00 1.00 21.00 38.00 1.00 22.00 6.00 1.00 22.00 7.00 1.00 22.00 8.00 1.00 22.00 9.00 1.00 22.00 10.00 1.00 22.00 11.00 1.00 22.00 31.00 1.00 22.00 32.00 1.00 22.00 33.00 1.00 22.00 34.00 1.00 22.00 35.00 1.00 22.00 36.00 1.00 22.00 37.00 1.00 22.00 38.00 1.00 23.00 8.00 1.00 23.00 9.00 1.00 23.00 10.00 1.00 23.00 11.00 1.00 23.00 31.00 1.00 23.00 32.00 1.00 23.00 33.00 1.00 23.00 34.00 1.00 23.00 35.00 1.00 23.00 36.00 1.00 23.00 37.00 1.00 23.00 38.00 1.00 24.00 10.00 1.00 24.00 11.00 1.00 24.00 31.00 1.00 24.00 32.00 1.00 24.00 33.00 1.00 24.00 34.00 1.00 24.00 35.00 1.00 24.00 36.00 1.00 24.00 37.00 1.00 24.00 38.00 1.00 25.00 11.00 1.00 25.00 31.00 1.00 25.00 32.00 1.00 25.00 33.00 1.00 25.00 34.00 1.00 25.00 35.00 1.00 25.00 36.00 1.00 25.00 37.00 1.00 25.00 38.00 1.00 26.00 31.00 1.00 26.00 32.00 1.00 26.00 33.00 1.00 26.00 34.00 1.00 26.00 35.00 1.00 26.00 36.00 1.00 26.00 37.00 1.00 26.00 38.00 1.00 27.00 31.00 1.00 27.00 32.00 1.00 27.00 33.00 1.00 27.00 34.00 1.00 27.00 35.00 1.00 27.00 36.00 1.00 27.00 37.00 1.00 27.00 38.00 1.00 28.00 31.00 1.00 28.00 32.00 1.00 28.00 33.00 1.00 28.00 34.00 1.00 28.00 35.00 1.00 28.00 36.00 1.00 28.00 37.00 1.00 28.00 38.00 1.00 29.00 31.00 1.00 29.00 32.00 1.00 29.00 33.00 1.00 29.00 34.00 1.00 29.00 35.00 1.00 29.00 36.00 1.00 29.00 37.00 1.00 29.00 38.00 1.00 30.00 31.00 1.00 30.00 32.00 1.00 30.00 33.00 1.00 30.00 34.00 1.00 30.00 35.00 1.00 30.00 36.00 1.00 30.00 37.00 1.00 30.00 38.00 1.00 31.00 35.00 1.00 31.00 36.00 1.00 31.00 37.00 1.00 31.00 38.00 1.00 31.00 87.00 1.00 32.00 37.00 1.00 32.00 38.00 1.00 32.00 87.00 1.00 32.00 88.00 1.00 32.00 89.00 1.00 33.00 38.00 1.00 33.00 87.00 1.00 33.00 88.00 1.00 33.00 89.00 1.00 33.00 90.00 1.00 33.00 91.00 1.00 33.00 92.00 1.00 33.00 93.00 1.00 34.00 87.00 1.00 34.00 88.00 1.00 34.00 89.00 1.00 34.00 90.00 1.00 34.00 91.00 1.00 34.00 92.00 1.00 34.00 93.00 1.00 34.00 94.00 1.00 35.00 87.00 1.00 35.00 88.00 1.00 35.00 89.00 1.00 35.00 90.00 1.00 35.00 91.00 1.00 35.00 92.00 1.00 35.00 93.00 1.00 35.00 94.00 1.00 36.00 87.00 1.00 36.00 88.00 1.00 36.00 89.00 1.00 36.00 90.00 1.00 36.00 91.00 1.00 36.00 92.00 1.00 36.00 93.00 1.00 36.00 94.00 1.00 37.00 87.00 1.00 37.00 88.00 1.00 37.00 89.00 1.00 37.00 90.00 1.00 37.00 91.00 1.00 37.00 92.00 1.00 37.00 93.00 1.00 37.00 94.00 1.00 38.00 87.00 1.00 38.00 88.00 1.00 38.00 89.00 1.00 38.00 90.00 1.00 38.00 91.00 1.00 38.00 92.00 1.00 38.00 93.00 1.00 38.00 94.00 1.00 39.00 87.00 1.00 39.00 88.00 1.00 39.00 89.00 1.00 39.00 90.00 1.00 39.00 91.00 1.00 39.00 92.00 1.00 39.00 93.00 1.00 39.00 94.00 1.00 40.00 87.00 1.00 40.00 88.00 1.00 40.00 89.00 1.00 40.00 90.00 1.00 40.00 91.00 1.00 40.00 92.00 1.00 40.00 93.00 1.00 40.00 94.00 1.00 41.00 87.00 1.00 41.00 88.00 1.00 41.00 89.00 1.00 41.00 90.00 1.00 41.00 91.00 1.00 41.00 92.00 1.00 41.00 93.00 1.00 41.00 94.00 1.00 42.00 87.00 1.00 42.00 88.00 1.00 42.00 89.00 1.00 42.00 90.00 1.00 42.00 91.00 1.00 42.00 92.00 1.00 42.00 93.00 1.00 42.00 94.00 1.00 43.00 87.00 1.00 43.00 88.00 1.00 43.00 89.00 1.00 43.00 90.00 1.00 43.00 91.00 1.00 43.00 92.00 1.00 43.00 93.00 1.00 43.00 94.00 1.00 44.00 87.00 1.00 44.00 88.00 1.00 44.00 89.00 1.00 44.00 90.00 1.00 44.00 91.00 1.00 44.00 92.00 1.00 44.00 93.00 1.00 44.00 94.00 1.00 45.00 87.00 1.00 45.00 88.00 1.00 45.00 89.00 1.00 45.00 90.00 1.00 45.00 91.00 1.00 45.00 92.00 1.00 45.00 93.00 1.00 45.00 94.00 1.00 46.00 87.00 1.00 46.00 88.00 1.00 46.00 89.00 1.00 46.00 90.00 1.00 46.00 91.00 1.00 46.00 92.00 1.00 46.00 93.00 1.00 46.00 94.00 1.00 47.00 11.00 1.00 47.00 87.00 1.00 47.00 88.00 1.00 47.00 89.00 1.00 47.00 90.00 1.00 47.00 91.00 1.00 47.00 92.00 1.00 47.00 93.00 1.00 47.00 94.00 1.00 48.00 9.00 1.00 48.00 10.00 1.00 48.00 11.00 1.00 48.00 87.00 1.00 48.00 88.00 1.00 48.00 89.00 1.00 48.00 90.00 1.00 48.00 91.00 1.00 48.00 92.00 1.00 48.00 93.00 1.00 48.00 94.00 1.00 49.00 8.00 1.00 49.00 9.00 1.00 49.00 10.00 1.00 49.00 11.00 1.00 49.00 87.00 1.00 49.00 88.00 1.00 49.00 89.00 1.00 49.00 90.00 1.00 49.00 91.00 1.00 49.00 92.00 1.00 49.00 93.00 1.00 49.00 94.00 1.00 50.00 5.00 1.00 50.00 6.00 1.00 50.00 7.00 1.00 50.00 8.00 1.00 50.00 9.00 1.00 50.00 10.00 1.00 50.00 11.00 1.00 50.00 87.00 1.00 50.00 88.00 1.00 50.00 89.00 1.00 50.00 90.00 1.00 50.00 91.00 1.00 50.00 92.00 1.00 50.00 93.00 1.00 50.00 94.00 1.00 51.00 7.00 1.00 51.00 8.00 1.00 51.00 9.00 1.00 51.00 10.00 1.00 51.00 11.00 1.00 51.00 88.00 1.00 51.00 89.00 1.00 51.00 90.00 1.00 51.00 91.00 1.00 51.00 92.00 1.00 51.00 93.00 1.00 51.00 94.00 1.00 52.00 10.00 1.00 52.00 89.00 1.00 52.00 90.00 1.00 52.00 91.00 1.00 52.00 92.00 1.00 52.00 93.00 1.00 52.00 94.00 1.00 53.00 90.00 1.00 53.00 91.00 1.00 53.00 92.00 1.00 53.00 93.00 1.00 53.00 94.00 1.00 54.00 92.00 1.00 54.00 93.00 1.00 54.00 94.00 1.00 55.00 93.00 1.00 55.00 94.00 1.00 56.00 93.00 1.00 56.00 94.00 1.00 57.00 94.00 1.00 79.00 10.00 1.00 79.00 11.00 1.00 80.00 7.00 1.00 80.00 8.00 1.00 80.00 9.00 1.00 80.00 10.00 1.00 80.00 11.00 1.00 81.00 4.00 1.00 81.00 5.00 1.00 81.00 6.00 1.00 81.00 7.00 1.00 81.00 8.00 1.00 81.00 9.00 1.00 82.00 4.00 1.00 82.00 5.00 1.00 82.00 6.00 1.00 82.00 7.00 1.00 83.00 4.00 1.00 83.00 5.00 1.00 83.00 6.00 1.00 83.00 37.00 1.00 83.00 38.00 1.00 83.00 59.00 1.00 83.00 94.00 1.00 84.00 4.00 1.00 84.00 31.00 1.00 84.00 32.00 1.00 84.00 33.00 1.00 84.00 34.00 1.00 84.00 35.00 1.00 84.00 36.00 1.00 84.00 37.00 1.00 84.00 38.00 1.00 84.00 59.00 1.00 84.00 60.00 1.00 84.00 93.00 1.00 84.00 94.00 1.00 85.00 31.00 1.00 85.00 32.00 1.00 85.00 33.00 1.00 85.00 34.00 1.00 85.00 35.00 1.00 85.00 36.00 1.00 85.00 37.00 1.00 85.00 38.00 1.00 85.00 39.00 1.00 85.00 59.00 1.00 85.00 60.00 1.00 85.00 61.00 1.00 85.00 92.00 1.00 85.00 93.00 1.00 85.00 94.00 1.00 86.00 31.00 1.00 86.00 32.00 1.00 86.00 33.00 1.00 86.00 34.00 1.00 86.00 35.00 1.00 86.00 36.00 1.00 86.00 37.00 1.00 86.00 38.00 1.00 86.00 60.00 1.00 86.00 61.00 1.00 86.00 62.00 1.00 86.00 91.00 1.00 86.00 92.00 1.00 86.00 93.00 1.00 86.00 94.00 1.00 87.00 32.00 1.00 87.00 33.00 1.00 87.00 34.00 1.00 87.00 35.00 1.00 87.00 36.00 1.00 87.00 37.00 1.00 87.00 38.00 1.00 87.00 61.00 1.00 87.00 62.00 1.00 87.00 63.00 1.00 87.00 90.00 1.00 87.00 91.00 1.00 87.00 92.00 1.00 87.00 93.00 1.00 87.00 94.00 1.00 88.00 33.00 1.00 88.00 34.00 1.00 88.00 35.00 1.00 88.00 36.00 1.00 88.00 37.00 1.00 88.00 38.00 1.00 88.00 62.00 1.00 88.00 63.00 1.00 88.00 64.00 1.00 88.00 88.00 1.00 88.00 89.00 1.00 88.00 90.00 1.00 88.00 91.00 1.00 88.00 92.00 1.00 88.00 93.00 1.00 88.00 94.00 1.00 89.00 33.00 1.00 89.00 34.00 1.00 89.00 35.00 1.00 89.00 36.00 1.00 89.00 37.00 1.00 89.00 38.00 1.00 89.00 62.00 1.00 89.00 63.00 1.00 89.00 64.00 1.00 89.00 65.00 1.00 89.00 66.00 1.00 89.00 87.00 1.00 89.00 88.00 1.00 89.00 89.00 1.00 89.00 90.00 1.00 89.00 91.00 1.00 89.00 92.00 1.00 89.00 93.00 1.00 89.00 94.00 1.00 90.00 34.00 1.00 90.00 35.00 1.00 90.00 3
[...]
POINT_DATA 12980
SCALARS grain_ID float
LOOKUP_TABLE default
5649.00 5649.00 6492.00 4494.00 4494.00 4711.00 8134.00 8134.00 8134.00 8134.00 8134.00 5649.00 5649.00 6492.00 4711.00 4711.00 4711.00 8134.00 8134.00 8134.00 8134.00 6718.00 6718.00 6718.00 4711.00 4711.00 4711.00 8134.00 8134.00 8134.00 6718.00 6718.00 6718.00 4711.00 4711.00 4711.00 8057.00 8134.00 8134.00 6718.00 6718.00 4711.00 8057.00 8057.00 8057.00 8057.00 6718.00 6718.00 6718.00 8057.00 8057.00 8057.00 8057.00 6718.00 6718.00 6718.00 8057.00 8057.00 8057.00 8057.00 6718.00 6718.00 6718.00 6718.00 8057.00 8057.00 8057.00 6718.00 6718.00 6718.00 6718.00 3869.00 3869.00 3869.00 6718.00 6718.00 6718.00 6718.00 6718.00 3869.00 3869.00 3869.00 6718.00 6718.00 6718.00 6718.00 8093.00 3869.00 3869.00 3869.00 6718.00 8093.00 8093.00 8093.00 8093.00 8093.00 3869.00 3869.00 3869.00 8093.00 8093.00 8093.00 8093.00 8093.00 8093.00 3869.00 8139.00 8139.00 8093.00 8093.00 8093.00 8093.00 8093.00 8093.00 8139.00 8139.00 8139.00 8093.00 8093.00 8093.00 8093.00 8093.00 8093.00 8139.00 8139.00 8139.00 8093.00 8093.00 8093.00 8093.00 8093.00 8093.00 8139.00 8139.00 8139.00 8093.00 8093.00 8093.00 8093.00 8093.00 8093.00 8093.00 8139.00 8139.00 590.00 8093.00 8093.00 8093.00 8093.00 8093.00 8093.00 590.00 590.00 590.00 8093.00 8093.00 8093.00 8093.00 8093.00 10033.00 590.00 590.00 590.00 590.00 8093.00 8093.00 8093.00 8093.00 10033.00 10033.00 10033.00 10033.00 10033.00 10033.00 10033.00 10033.00 590.00 590.00 590.00 590.00 590.00 8093.00 8093.00 8093.00 10033.00 10033.00 10033.00 10033.00 10033.00 11859.00 590.00 590.00 590.00 590.00 590.00 590.00 590.00 8093.00 10033.00 10033.00 11859.00 11859.00 590.00 590.00 590.00 590.00 590.00 590.00 590.00 590.00 11859.00 11859.00 590.00 590.00 590.00 590.00 590.00 590.00 590.00 590.00 11859.00 590.00 590.00 590.00 590.00 590.00 590.00 590.00 590.00 590.00 590.00 590.00 590.00 590.00 590.00 590.00 590.00 590.00 590.00 590.00 590.00 590.00 590.00 4304.00 4304.00 590.00 590.00 590.00 590.00 590.00 4304.00 4304.00 4304.00 590.00 590.00 590.00 4304.00 4304.00 4304.00 4304.00 4304.00 1351.00 590.00 4304.00 4304.00 4304.00 4304.00 4304.00 4304.00 4304.00 4304.00 4304.00 4304.00 2449.00 4304.00 4304.00 2493.00 2493.00 4782.00 4304.00 2493.00 2493.00 4782.00 4782.00 4782.00 4782.00 4782.00 2493.00 4782.00 4782.00 4782.00 4782.00 4782.00 4782.00 4782.00 2493.00 4782.00 4782.00 4782.00 4782.00 4782.00 4782.00 4782.00 2493.00 4782.00 4782.00 4782.00 4782.00 4782.00 4782.00 4782.00 4782.00 4782.00 4782.00 4782.00 4782.00 4782.00 4782.00 4782.00 4782.00 4782.00 4782.00 4782.00 4782.00 4782.00 4782.00 4782.00 4782.00 4782.00 4782.00 4782.00 4782.00 4782.00 4782.00 9791.00 4782.00 4782.00 4782.00 4782.00 4782.00 4782.00 9791.00 9791.00 4782.00 4782.00 4782.00 4782.00 4782.00 4782.00 9791.00 9791.00 11209.00 4782.00 4782.00 4782.00 4782.00 9791.00 9791.00 9791.00 11209.00 11209.00 4782.00 4782.00 4782.00 9791.00 9791.00 9791.00 11209.00 11209.00 11209.00 4782.00 9791.00 9791.00 9791.00 9791.00 11209.00 11209.00 11209.00 11209.00 9791.00 9791.00 9791.00 9791.00 11209.00 11209.00 11209.00 11209.00 9791.00 9791.00 9791.00 9791.00 879.00 11957.00 11957.00 11957.00 11209.00 11209.00 9791.00 9791.00 9791.00 408.00 408.00 408.00 11957.00 11957.00 11957.00 11957.00 11957.00 1460.00 1460.00 1460.00 408.00 408.00 408.00 408.00 11957.00 11957.00 11957.00 11957.00 11957.00 1460.00 1460.00 1460.00 408.00 408.00 408.00 408.00 408.00 408.00 408.00 11957.00 11957.00 11957.00 11957.00 1460.00 1460.00 1460.00 1460.00 408.00 408.00 408.00 408.00 3262.00 11957.00 11957.00 11957.00 1460.00 1460.00 1460.00 1460.00 408.00 11957.00 11957.00 1460.00 1460.00 1460.00 1460.00 1460.00 1460.00 1460.00 1460.00 1460.00 1460.00 1460.00 1460.00 1460.00 1460.00 1460.00 1460.00 1460.00 6220.00 6220.00 6220.00 6220.00 6220.00 6220.00 6220.00 6220.00 6220.00 6220.00 6220.00 6220.00 6220.00 2291.00 2291.00 1628.00 1628.00 2291.00 2291.00 2291.00 2989.00 2989.00 3051.00 4454.00 2291.00 12364.00 12364.00 12364.00 12364.00 2989.00 2989.00 2989.00 2989.00 3051.00 3051.00 4454.00 4454.00 12364.00 12364.00 12364.00 12364.00 2989.00 2989.00 2989.00 2989.00 2989.00 3051.00 3051.00 3051.00 8860.00 8860.00 8860.00 12364.00 12364.00 12364.00 12364.00 2989.00 2989.00 2989.00 2989.00 3051.00 1793.00 1793.00 8860.00 8860.00 8860.00 8860.00 12364.00 12364.00 2989.00 2989.00 2989.00 2989.00 2989.00 1793.00 1793.00 1793.00 8860.00 8860.00 8860.00 8860.00 8860.00 12364.00 2989.00 2989.00 2989.00 2989.00 2989.00 1793.00 1793.00 1793.00 8860.00 8860.00 8860.00 8860.00 8860.00 8860.00 8860.00 5327.00 2989.00 2989.00 2989.00 2989.00 2989.00 1793.00 1793.00 1793.00 1793.00 1793.00 4903.00 4903.00 8860.00 8860.00 8860.00 8860.00 8860.00 8860.00 2989.00 2989.00 2989.00 2989.00 2989.00 1793.00 1793.00 1793.00 1793.00 4903.00 4903.00 4903.00 4903.00 8860.00 8860.00 8860.00 8860.00 2989.00 2989.00 2989.00 2989.00 1793.00 1793.00 1793.00 1793.00 4903.00 4903.00 4903.00 4903.00 4903.00 8860.00 8860.00 8860.00 2989.00 2989.00 2989.00 2989.00 1793.00 1793.00 1793.00 1793.00 4903.00 4903.00 4903.00 4903.00 4903.00 4903.00 4903.00 8860.00 2989.00 2989.00 2989.00 1793.00 1793.00 1793.00 1793.00 4903.00 4903.00 4903.00 4903.00 4903.00 4903.00 4903.00 4903.00 2989.00 2989.00 2989.00 1793.00 1793.00 1793.00 1793.00 4903.00 4903.00 4903.00 4903.00 4903.00 4903.00 4903.00 4341.00 3799.00 2989.00 2989.00 10334.00 10334.00 10334.00 10334.00 6917.00 6917.00 6185.00 6185.00 6185.00 4341.00 4341.00 4341.00 3799.00 3799.00 3799.00 10334.00 10334.00 10334.00 10334.00 6917.00 6917.00 6185.00 6185.00 6185.00 6185.00 6185.00 4341.00 3799.00 3799.00 3799.00 10334.00 10334.00 10334.00 10334.00 6917.00 6917.00 6185.00 6185.00 6185.00 6185.00 6185.00 6185.00 3799.00 3799.00 3799.00 3799.00 10334.00 10334.00 10334.00 10334.00 6917.00 6917.00 6185.00 6185.00 6185.00 6185.00 6185.00 6185.00 6531.00 3799.00 3799.00 3799.00 10334.00 10334.00 10334.00 10334.00 10334.00 6917.00 6917.00 6185.00 6185.00 6185.00 6185.00 6185.00 6185.00 6531.00 6531.00 3799.00 8058.00 10334.00 10334.00 10334.00 10334.00 10334.00 6917.00 6917.00 6185.00 6185.00 6185.00 6185.00 6185.00 6185.00 5649.00 4711.00 4711.00 8134.00 8134.00 8134.00 5649.00 4711.00 8134.00 8134.00 8134.00 6718.00 4711.00 8134.00 8134.00 6718.00 4711.00 5918.00 5918.00 6718.00 5918.00 5918.00 6718.00 8057.00 5918.00 6718.00 6718.00 8057.00 6718.00 6718.00 8057.00 6718.00 6718.00 6718.00 6718.00 6718.00 6718.00 6718.00 6718.00 6718.00 6718.00 8093.00 8093.00 8093.00 8093.00 8093.00 8093.00 8093.00 8093.00 8093.00 8093.00 8093.00 8093.00 8093.00 8093.00 8093.00 8093.00 8093.00 8139.00 8093.00 8093.00 8093.00 8093.00 590.00 8093.00 8093.00 8093.00 590.00 590.00 590.00 8093.00 10033.00 10033.00 590.00 590.00 590.00 590.00 8093.00 10033.00 10033.00 10033.00 10033.00 590.00 590.00 590.00 590.00 590.00 10033.00 10033.00 590.00 590.00 590.00 590.00 590.00 590.00 590.00 590.00 590.00 590.00 590.00 590.00 590.00 590.00 590.00 590.00 590.00 590.00 590.00 590.00 590.00 590.00 590.00 590.00 4304.00 590.00 590.00 590.00 4304.00 4304.00 590.00 4304.00 4304.00 4304.00 4304.00 4304.00 4304.00 4304.00 4304.00 4304.00 2493.00 2493.00 2493.00 4782.00 4782.00 2493.00 4782.00 4782.00 4782.00 4782.00 4782.00 2493.00 4782.00 4782.00 4782.00 4782.00 4782.00 2493.00 4782.00 4782.00 4782.00 4782.00 4782.00 4782.00 4782.00 4782.00 4782.00 4782.00 4782.00 4782.00 4782.00 4782.00 4782.00 4782.00 4782.00 4782.00 4782.00 4782.00 4782.00 4782.00 4782.00 4782.00 4782.00 4782.00 4782.00 4782.00 9791.00 4782.00 4782.00 4782.00 4782.00 9791.00 9791.00 11209.00 4782.00 4782.00 4782.00 9791.00 9791.00 11209.00 11209.00 4782.00 9791.00 9791.00 9791.00 11209.00 11209.00 11209.00 9791.00 9791.00 9791.00 11209.00 11209.00 11209.00 9791.00 9791.00 9791.00 11209.00 11209.00 11209.00 11209.00 9791.00 9791.00 11209.00 11209.00 11209.00 11209.00 9791.00 9791.00 11957.00 11209.00 11209.00 11209.00 2018.00 2018.00 408.00 408.00 11957.00 11957.00 11957.00 84.00 1460.00 1460.00 408.00 408.00 408.00 408.00 408.00 11957.00 11957.00 11957.00 84.00 1460.00 1460.00 408.00 408.00 408.00 11957.00 11957.00 84.00 1460.00 1460.00 1460.00 11957.00 84.00 1460.00 1460.00 1460.00 1460.00 1460.00 1460.00 1460.00 1460.00 1460.00 6220.00 6220.00 6220.00 6220.00 6220.00 6220.00 6220.00 6220.00 2291.00 1628.00 1628.00 2291.00 1628.00 2989.00 2989.00 4454.00 12364.00 12364.00 2989.00 2989.00 2989.00 3051.00 8860.00 8860.00 12364.00 12364.00 2989.00 2989.00 2989.00 3051.00 1793.00 8860.00 8860.00 8860.00 12364.00 12364.00 2989.00 2989.00 2989.00 1793.00 1793.00 8860.00 8860.00 8860.00 8860.00 12364.00 12364.00 2989.00 2989.00 2989.00 1793.00 1793.00 4903.00 8860.00 8860.00 8860.00 8860.00 8860.00 12364.00 2989.00 2989.00 2989.00 2989.00 1793.00 1793.00 1793.00 4903.00 4903.00 8860.00 8860.00 8860.00 8860.00 2989.00 2989.00 2989.00 2989.00 1793.00 1793.00 1793.00 4903.00 4903.00 4903.00 4903.00 8860.00 8860.00 2989.00 2989.00 2989.00 2989.00 1793.00 1793.00 4903.00 4903.00 4903.00 4903.00 4903.00 8860.00 2989.00 2989.00 1793.00 1793.00 4903.00 4903.00 4903.00 4903.00 4903.00 4903.00 3799.00 2989.00 1793.00 1793.00 4903.00 4903.00 4903.00 4903.00 4903.00 4903.00 3799.00 3799.00 10334.00 10334.00 4903.00 4903.00 4903.00 4903.00 4903.00 4341.00 3799.00 3799.00 10334.00 10334.00 6917.00 6185.00 6185.00 4341.00 4341.00 4341.00 3799.00 3799.00 10334.00 10334.00 6917.00 6185.00 6185.00 6185.00 6185.00 4341.00 3799.00 3799.00 10334.00 10334.00 6917.00 6185.00 6185.00 6185.00 6185.00 6185.00 3799.00 3799.00 3799.00 10334.00 10334.00 6917.00 6185.00 6185.00 6185.00 6185.00 6185.00 6531.00 3799.00 3799.00 10334.00 10334.00 10334.00 6185.00 6185.00 6185.00 6185.00 6185.00 6185.00 6531.00 6531.00 8058.00 10334.00 10334.00 10334.00 6185.00 6185.00 6185.00 6185.00 6185.00 6185.00 4711.00 8134.00 8134.00 4711.00 8134.00 5918.00 6718.00 6718.00 6718.00 8093.00 8093.00 8093.00 590.00 10922.00 590.00 590.00 590.00 590.00 590.00 10033.00 10033.00 10033.00 590.00 590.00 590.00 261.00 590.00 590.00 590.00 590.00 590.00 590.00 590.00 590.00 590.00 590.00 590.00 590.00 590.00 590.00 590.00 590.00 590.00 4304.00 4304.00 4304.00 4304.00 4304.00 2493.00 2493.00 2493.00 4782.00 4782.00 4782.00 2493.00 4782.00 4782.00 4782.00 2493.00 4782.00 4782.00 4782.00 4782.00 4782.00 4782.00 4782.00 4782.00 4782.00 4782.00 4782.00 4782.00 4782.00 4782.00 4782.00 4782.00 4782.00 4782.00 4782.00 4782.00 4782.00 4782.00 9791.00 11209.00 4782.00 9791.00 9791.00 11209.00 11209.00 9791.00 9791.00 11209.00 11209.00 9791.00 9791.00 11209.00 11209.00 11209.00 9791.00 11209.00 11209.00 11209.00 9791.00 11209.00 11209.00 11209.00 9791.00 11209.00 11209.00 11209.00 2018.00 408.00 11209.00 84.00 84.00 2018.00 408.00 408.00 408.00 84.00 84.00 84.00 2018.00 408.00 408.00 84.00 84.00 84.00 1460.00 84.00 84.00 84.00 1460.00 84.00 1460.00 1460.00 6220.00 6220.00 6220.00 6220.00 6220.00 1628.00 1628.00 1628.00 12364.00 2989.00 2989.00 8860.00 12364.00 2989.00 2989.00 3051.00 8860.00 8860.00 12364.00 2989.00 2989.00 1793.00 8860.00 8860.00 8860.00 12364.00 2989.00 2989.00 1793.00 1793.00 4903.00 8860.00 8860.00 8860.00 12364.00 2989.00 2989.00 1793.00 4903.00 4903.00 8860.00 8860.00 2989.00 2989.00 2989.00 1793.00 4903.00 4903.00 4903.00 4903.00 3799.00 2989.00 2989.00 1793.00 4903.00 4903.00 4903.00 4903.00 3799.00 3799.00 2989.00 4903.00 4903.00 4903.00 4903.00 3799.00 3799.00 4903.00 4903.00 4903.00 4903.00 3799.00 4903.00 4903.00 4341.00 4341.00 3799.00 6185.00 4341.00 4341.00 4341.00 3799.00 3799.00 6185.00 6185.00 6185.00 4341.00 3799.00 3799.00 6185.00 6185.00 6185.00 6185.00 3799.00 3799.00 10334.00 6185.00 6185.00 6185.00 6185.00 6531.00 3799.00 10334.00 6185.00 6185.00 6185.00 6185.00 6531.00 6531.00 10334.00 6185.00 6185.00 6185.00 6185.00 590.00 590.00 261.00 261.00 261.00 590.00 590.00 261.00 590.00 590.00 590.00 590.00 590.00 590.00 590.00 590.00 590.00 590.00 590.00 590.00 590.00 590.00 3399.00 3399.00 3399.00 3399.00 4304.00 2493.00 2493.00 4782.00 2493.00 4782.00 2493.00 4782.00 4782.00 4782.00 4782.00 4782.00 4782.00 4782.00 4782.00 4782.00 4782.00 4782.00 4782.00 9791.00 11209.00 9791.00 11209.00 9791.00 11209.00 11209.00 11209.00 11209.00 11209.00 11209.00 11209.00 84.00 408.00 408.00 84.00 84.00 408.00 408.00 408.00 84.00 84.00 408.00 408.00 84.00 84.00 84.00 84.00 84.00 84.00 6220.00 6220.00 6220.00 6220.00 6220.00 1628.00 1628.00 1628.00 1628.00 12364.00 2989.00 2989.00 8860.00 12364.00 2989.00 2989.00 8860.00 8860.00 12364.00 2989.00 2989.00 8860.00 8860.00 12364.00 2989.00 2989.00 4903.00 4903.00 3799.00 3799.00 2989.00 4903.00 4903.00 3799.00 3799.00 4903.00 4903.00 3799.00 3799.00 4903.00 4903.00 3799.00 4903.00 4903.00 3799.00 4341.00 4341.00 3799.00 4341.00 4341.00 3799.00 6185.00 4341.00 3799.00 6185.00 6185.00 3799.00 6185.00 6185.00 6531.00 3799.00 6185.00 6185.00 6531.00 6531.00 6185.00 6185.00 261.00 590.00 590.00 3399.00 3399.00 3399.00 2493.00 2493.00 2493.00 4782.00 4782.00 4782.00 4782.00 9791.00 9791.00 9791.00 11209.00 11209.00 11209.00 11209.00 84.00 408.00 84.00 408.00 84.00 408.00 84.00 84.00 84.00 84.00 6220.00 6220.00 1628.00 8860.00 10218.00 8860.00 10218.00 8860.00 3799.00 4903.00 3799.00 4903.00 3799.00 4903.00 3799.00 4903.00 4341.00 4341.00 4341.00 4341.00 3799.00 4341.00 3799.00 6185.00 6531.00 6185.00 6531.00 6185.00 261.00 408.00 11593.00 7299.00 7299.00 7299.00 7299.00 7299.00 7420.00 7420.00 7299.00 7299.00 7299.00 7299.00 7299.00 7420.00 7420.00 7299.00 7299.00 7299.00 7299.00 7299.00 7420.00 7299.00 7299.00 7299.00 7299.00 7299.00 7299.00 7299.00 7299.00 7299.00 7299.00 7299.00 7299.00 7299.00 7299.00 7299.00 7299.00 7299.00 7299.00 7299.00 7299.00 7299.00 7299.00 7299.00 7299.00 7299.00 3102.00 3102.00 3102.00 3102.00 3102.00 3102.00 3102.00 3102.00 3102.00 3102.00 3102.00 3102.00 3102.00 3102.00 3102.00 3702.00 9337.00 9337.00 9337.00 9337.00 9337.00 9337.00 9337.00 9337.00 9337.00 9337.00 9337.00 9337.00 9337.00 9337.00 9337.00 9337.00 9337.00 9337.00 9337.00 9337.00 5291.00 5291.00 9337.00 5291.00 5291.00 5291.00 5291.00 5291.00 5291.00 5291.00 5291.00 5291.00 5291.00 5291.00 5291.00 5291.00 5291.00 5291.00 5291.00 5291.00 5291.00 5291.00 5291.00 5291.00 5291.00 5291.00 5291.00 5291.00 5291.00 5291.00 5291.00 5291.00 2073.00 5291.00 5291.00 2073.00 2073.00 5291.00 2073.00 2073.00 2073.00 2073.00 2073.00 2073.00 2073.00 2073.00 2073.00 2073.00 2073.00 2073.00 2073.00 2073.00 3284.00 3284.00 10804.00 2073.00 3284.00 10804.00 10804.00 981.00 10804.00 10804.00 981.00 10804.00 10804.00 10804.00 10804.00 10804.00 10804.00 10804.00 10804.00 10804.00 10804.00 10804.00 5535.00 5535.00 5535.00 5535.00 5535.00 10775.00 5535.00 5535.00 10775.00 10775.00 5535.00 5535.00 10775.00 10775.00 5535.00 5535.00 10775.00 10775.00 10775.00 10775.00 5535.00 10152.00 10775.00 10775.00 10775.00 10775.00 5535.00 10152.00 10152.00 10775.00 10775.00 10775.00 10775.00 5535.00 10775.00 10775.00 5535.00 1324.00 1324.00 1197.00 2104.00 2104.00 2104.00 2104.00 2104.00 2104.00 1197.00 1197.00 2104.00 2104.00 2104.00 2104.00 2104.00 2104.00 2104.00 2104.00 2104.00 2104.00 2104.00 2104.00 2104.00 2104.00 2104.00 2104.00 2104.00 2104.00 2104.00 2104.00 2104.00 2104.00 2104.00 2104.00 2104.00 2104.00 2104.00 2104.00 2104.00 2104.00 2104.00 2104.00 2104.00 2104.00 2104.00 2104.00 2104.00 2104.00 2104.00 10823.00 2104.00 2104.00 10823.00 10823.00 10823.00 10823.00 10823.00 10823.00 10823.00 10823.00 10823.00 10823.00 10823.00 10823.00 10823.00 10823.00 10823.00 10823.00 10823.00 10823.00 10823.00 10823.00 10823.00 10823.00 10823.00 10823.00 10823.00 10823.00 10823.00 10823.00 10823.00 10823.00 10823.00 10823.00 10823.00 10823.00 10823.00 10823.00 10823.00 10823.00 7299.00 7299.00 7299.00 7299.00 7299.00 8894.00 7299.00 7299.00 7299.00 7299.00 7299.00 8894.00 7299.00 7299.00 7299.00 7299.00 7299.00 7299.00 7299.00 7299.00 7299.00 7299.00 7299.00 7299.00 7299.00 7299.00 7299.00 7299.00 7299.00 7299.00 7299.00 7299.00 7299.00 7299.00 7299.00 8340.00 7299.00 7299.00 8340.00 7299.00 3102.00 3102.00 3102.00 3102.00 3102.00 3102.00 3102.00 3702.00 3102.00 3702.00 9337.00 9337.00 9337.00 9337.00 9337.00 9337.00 9337.00 9337.00 9337.00 512.00 9337.00 512.00 512.00 9337.00 512.00 512.00 9337.00 5291.00 5291.00 5291.00 5291.00 5291.00 5291.00 5291.00 5291.00 5291.00 5291.00 5291.00 5291.00 5291.00 5291.00 5291.00 5291.00 5291.00 5291.00 5291.00 5291.00 5291.00 5291.00 5291.00 5291.00 256.00 256.00 256.00 12331.00 256.00 256.00 256.00 5025.00 7401.00 256.00 256.00 256.00 7401.00 7401.00 7401.00 7401.00 7401.00 2073.00 2073.00 2073.00 4965.00 2073.00 7401.00 7401.00 7401.00 3921.00 3921.00 3921.00 4945.00 3921.00 105.00 10804.00 683.00 683.00 105.00 683.00 683.00 683.00 683.00 3932.00 683.00 683.00 683.00 683.00 683.00 5535.00 4702.00 4702.00 4702.00 4591.00 10152.00 627.00 4702.00 5535.00 10152.00 10152.00 627.00 627.00 5535.00 10152.00 10152.00 10152.00 10152.00 627.00 5535.00 10152.00 10152.00 10152.00 10152.00 10775.00 10775.00 10152.00 10152.00 10152.00 10775.00 10775.00 10775.00 1197.00 2104.00 2104.00 2104.00 6517.00 5852.00 2104.00 2104.00 2104.00 2104.00 2104.00 8220.00 2104.00 2104.00 2104.00 2104.00 2104.00 8220.00 2559.00 2104.00 2104.00 2104.00 2104.00 8220.00 2559.00 10823.00 10823.00 2263.00 2263.00 2263.00 2559.00 10823.00 10823.00 2263.00 2263.00 2263.00 10823.00 10823.00 10823.00 2263.00 2263.00 2263.00 10823.00 10823.00 9996.00 9996.00 9996.00 2263.00 10823.00 9996.00 9996.00 9996.00 9996.00 9996.00 10823.00 10823.00 9996.00 9996.00 9996.00 9996.00 7299.00 7299.00 7299.00 7299.00 7299.00 7299.00 7299.00 7299.00 7299.00 7299.00 7299.00 7299.00 7299.00 7299.00 7299.00 7299.00 7299.00 7299.00 7299.00 7299.00 7299.00 8340.00 7299.00 8340.00 8340.00 8340.00 8340.00 7299.00 8340.00 3102.00 3102.00 3102.00 3102.00 3102.00 5858.00 5858.00 9337.00 9337.00 9337.00 9337.00 9337.00 9337.00 512.00 512.00 512.00 512.00 4703.00 512.00 512.00 5291.00 4703.00 5291.00 5291.00 5291.00 5291.00 5291.00 5291.00 5291.00 5291.00 5291.00 5291.00 5291.00 5291.00 5291.00 5291.00 5291.00 5291.00 5291.00 256.00 256.00 5291.00 5291.00 256.00 256.00 256.00 256.00 256.00 256.00 9953.00 7401.00 7401.00 7401.00 7401.00 7401.00 4965.00 4965.00 4965.00 4965.00 7401.00 7401.00 3921.00 3921.00 105.00 105.00 105.00 683.00 683.00 683.00 683.00 683.00 683.00 683.00 4702.00 4702.00 4702.00 4702.00 4702.00 10152.00 627.00 4702.00 4702.00 10152.00 627.00 627.00 4702.00 10152.00 10152.00 10152.00 10152.00 10152.00 10152.00 10152.00 10775.00 10152.00 10152.00 10152.00 10775.00 10775.00 2104.00 2104.00 2104.00 2104.00 8220.00 2104.00 2104.00 2104.00 2104.00 10823.00 10823.00 2263.00 2263.00 10823.00 10823.00 2263.00 2263.00 10823.00 10823.00 2263.00 2263.00 9996.00 9996.00 9996.00 9996.00 9996.00 9996.00 9996.00 9996.00 9996.00 9996.00 9996.00 9996.00 7299.00 7299.00 7299.00 7299.00 3102.00 5858.00 5858.00 5858.00 9337.00 9337.00 9337.00 9337.00 512.00 512.00 512.00 4703.00 512.00 4703.00 5291.00 5291.00 5291.00 5291.00 5291.00 5291.00 5291.00 5291.00 5291.00 5291.00 5291.00 256.00 256.00 256.00 9953.00 7401.00 7401.00 7401.00 7401.00 7401.00 4965.00 7401.00 4965.00 7401.00 4945.00 4945.00 4945.00 105.00 105.00 105.00 683.00 683.00 683.00 683.00 683.00 683.00 683.00 683.00 478.00 4702.00 627.00 4702.00 627.00 627.00 10152.00 10152.00 10152.00 10152.00 10152.00 10152.00 10152.00 10152.00 2104.00 10823.00 2104.00 10823.00 2263.00 2263.00 2263.00 9996.00 2263.00 9996.00 9996.00 9996.00 9996.00 9996.00 9996.00 9337.00 512.00 512.00 512.00 5291.00 5291.00 5291.00 6545.00 5291.00 5291.00 256.00 9953.00 256.00 7401.00 7401.00 7401.00 7401.00 4945.00 1197.00 1197.00 1197.00 105.00 105.00 683.00 683.00 683.00 683.00 4702.00 4702.00 627.00 10152.00 10152.00 1197.00 1197.00 1197.00 101.00 261.00 5883.00 5883.00 5883.00 8749.00 1993.00 261.00 5883.00 5883.00 5883.00 8749.00 1993.00 261.00 261.00 5883.00 8749.00 8749.00 8749.00 261.00 261.00 8749.00 8749.00 8749.00 8749.00 8749.00 8749.00 8749.00 8749.00 8749.00 8749.00 8749.00 8749.00 8749.00 8749.00